{
    "facet": "Fruity, Green, Pineapple",
    "family": "Fruity",
    "formula": "Iso-amyl oxyacetic acid allylester",
    "identificationNumbers": {
        "cas": "01-2120794630-50",
        "ipc": "013825",
        "reach": "01-2120794630-50"
    },
    "logP": "2.7",
    "name": "Allyl Amyl Glycolate",
    "olfactoryDescription": "Strong, fruity, galbanum with a pineapple modification. Adds a modern sparkle to any fragrance.",
    "vaporPressure": "0.035949 mm Hg @ 23°C"
}
