{
    "facet": "Woody, Dry, Patchouli",
    "family": "Woody",
    "formula": "Cedr-8-ene epoxide",
    "identificationNumbers": {
        "cas": "Not yet required",
        "ipc": "015321",
        "reach": "Not yet required"
    },
    "logP": "4.7",
    "name": "Andrane",
    "olfactoryDescription": "A precious wood odor reminiscent of ambergris, tobacco, cedarwood and sandalwood. It is powerful, stable, excellent in soap and useful in artificial patchouli.",
    "vaporPressure": "0.000268 mm Hg @ 23°C"
}