{
    "facet": "Floral, Mimosa, Sweet",
    "family": "Floral",
    "formula": "Benzoic acid, 2-[{(4-methoxyphenyl)methylene}amino]methyl ester",
    "identificationNumbers": {
        "cas": "Not yet required",
        "ipc": "010089",
        "reach": "Not yet required"
    },
    "logP": "1.8",
    "name": "Anisimea",
    "olfactoryDescription": "A powdery mimosa character similar to the sweet smell of common orange flower.",
    "vaporPressure": "0.00067 mm Hg @ 23°C"
}