{
    "facet": "Herbal, Floral, Woody",
    "family": "Herbal",
    "formula": "4-Isopropyl cyclohexanol",
    "identificationNumbers": {
        "cas": "Not yet required",
        "ipc": "012384",
        "reach": "Not yet required"
    },
    "logP": "2.9",
    "name": "Apo Patchone Coeur",
    "olfactoryDescription": "A diffusive floral effect reminiscent of a combination of lilac, rose and geranium.",
    "vaporPressure": "0.055809 mm Hg @ 23°C"
}