{
    "facet": "Fresh, Marine, Ozonic",
    "family": "Fresh",
    "formula": "7-Methyl-3,4-dihydro-2H-1,5-benzodioxepine-3-one",
    "identificationNumbers": {
        "cas": "01-2120734453-58",
        "ipc": "030516",
        "reach": "01-2120734453-58"
    },
    "logP": "1.8",
    "name": "Aquamor",
    "olfactoryDescription": "Fresh, marine, green, watermelon, oceanic note.",
    "vaporPressure": "0.004356 mm Hg @ 23°C"
}