{
    "facet": "Floral, Orange Flower",
    "family": "Floral",
    "formula": "Benzoic acid, 2-{(7-hydroxy-3,7-dimethyloctylidene}amino)methyl ester",
    "identificationNumbers": {
        "cas": "01-2120757441-56",
        "ipc": "015750",
        "reach": "01-2120757441-56"
    },
    "logP": "3.4",
    "name": "Auralva",
    "olfactoryDescription": "Neroli, orange, muguet and grape facets.",
    "vaporPressure": "0.000001 mm Hg @ 23°C"
}