{
    "facet": "Sandalwood, Floral, Woody",
    "family": "Woody",
    "formula": "2-Ethyl-4-(2,2,3-trimethyl-3-cyclo-penten-1-yl)-2-buten-1-ol",
    "identificationNumbers": {
        "cas": "01-2119529224-45",
        "ipc": "021326",
        "reach": "01-2119529224-45"
    },
    "logP": "4.3",
    "name": "Bacdanol®",
    "olfactoryDescription": "Powerful, true sandalwood note. Provides excellent long lasting floral support. Extremely diffusive and very cost effective. Non-discoloring.",
    "vaporPressure": "0.001065 mm Hg @ 23°C"
}