{
    "facet": "Fresh, Fruity, Sweet",
    "family": "Fruity",
    "formula": "2-Isobutoxy naphtalene",
    "identificationNumbers": {
        "cas": "01-2120735662-54",
        "ipc": "022080",
        "reach": "01-2120735662-54"
    },
    "logP": "4.7",
    "name": "Beta Naphtyl Isobutyl Ether",
    "olfactoryDescription": "Sweet, strawberry with fruity orange blossom notes.",
    "vaporPressure": "0.001133 mm Hg @ 23°C"
}