{
    "facet": "Herbal, Fresh, Lavender",
    "family": "Herbal",
    "formula": "para Menth-8-en-2-ol acetate",
    "identificationNumbers": {
        "cas": "Not yet required",
        "ipc": "032208",
        "reach": "Not yet required"
    },
    "logP": "3.8",
    "name": "Carhydrine",
    "olfactoryDescription": "Floral, rose, cumin seed background.",
    "vaporPressure": "0.037382 mm Hg @ 23°C"
}