{
    "facet": "Woody, Cedar, Dry",
    "family": "Woody",
    "formula": "Mixture",
    "identificationNumbers": {
        "cas": "Not yet required",
        "ipc": "033043",
        "reach": "Not yet required"
    },
    "logP": "",
    "name": "Cedarwood Oil Extra",
    "olfactoryDescription": "Cedarwood, balsamic sweet.",
    "vaporPressure": "0.02285 mm Hg @ 23°C"
}