{
    "facet": "Woody, Cedar, Dry",
    "family": "Woody",
    "formula": "Mixture",
    "identificationNumbers": {
        "cas": "01-2120753603-56",
        "ipc": "032869",
        "reach": "01-2120753603-56"
    },
    "logP": "",
    "name": "Cedarwood White",
    "olfactoryDescription": "Cedarwood, balsamic sweet.",
    "vaporPressure": "0.02285 mm Hg @ 23°C"
}