{
    "facet": "Woody, Dry, Cedarwood",
    "family": "Woody",
    "formula": "Cedryl methyl ether",
    "identificationNumbers": {
        "cas": "01-2120228335-61",
        "ipc": "033386",
        "reach": "01-2120228335-61"
    },
    "logP": "4.6",
    "name": "Cedramber®",
    "olfactoryDescription": "A dry, very diffusive, true ambergris note that also has rich woody cedarwood, dry aspects.",
    "vaporPressure": "0.003798 mm Hg @ 23°C"
}