{
    "facet": "Woody, Cedar, Sandalwood",
    "family": "Woody",
    "formula": "Octahydro-3,6,8,8-tetramethyl-1H-3a,7-methanoazulen-6-ol",
    "identificationNumbers": {
        "cas": "",
        "ipc": "033224",
        "reach": ""
    },
    "logP": "5.3",
    "name": "Cedrol Cryst 1x",
    "olfactoryDescription": "Characteristic cedar, sandalwood note, valuable addition to enhance woody facets in fine fragrances.",
    "vaporPressure": "0.000499 mm Hg @ 23°C"
}