{
    "facet": "Woody, Cedar, Leather",
    "family": "Woody",
    "formula": "Cedr-8-enyl methyl ketone",
    "identificationNumbers": {
        "cas": "01-2119969651-28",
        "ipc": "062290",
        "reach": "01-2119969651-28"
    },
    "logP": "5.7",
    "name": "Cedrafix",
    "olfactoryDescription": "Woody, amber, leathery, vetivert. A very economical, substantive alternative to Methyl Cedryl Ketone. Very substantive on skin, fabric, hair and paper.",
    "vaporPressure": "0.002926 mm Hg @ 23°C"
}