{
    "facet": "Woody, Balsamic, Dry",
    "family": "Woody",
    "formula": "Octahydro-3,6,8,8-tetramethyl-1H-3a,7-methanoazulen-6-ol acetate",
    "identificationNumbers": {
        "cas": "01-2120739845-42",
        "ipc": "033077",
        "reach": "01-2120739845-42"
    },
    "logP": "6.2",
    "name": "Cedryl Acetate",
    "olfactoryDescription": "Light cedar, vetivert odor, sweet woody and long lasting.",
    "vaporPressure": "0.000489 mm Hg @ 23°C"
}