{
    "facet": "Fruity, Sweet, Rose",
    "family": "Fruity",
    "formula": "3,7-Dimethyl-6-octen-1-yl acetate",
    "identificationNumbers": {
        "cas": "01-2120772314-56",
        "ipc": "038606",
        "reach": "01-2120772314-56"
    },
    "logP": "4.2",
    "name": "Citronellyl Acetate Pure",
    "olfactoryDescription": "Slight rosy note with some fresh citrus, fruity facets.",
    "vaporPressure": "0.019388 mm Hg @ 23°C"
}