{
    "facet": "Floral, Fresh, Fruity",
    "family": "Floral",
    "formula": "3,7-Dimethyl-6-octen-1-yl propionate",
    "identificationNumbers": {
        "cas": "Not yet required",
        "ipc": "035048",
        "reach": "Not yet required"
    },
    "logP": "5.1",
    "name": "Citronellyl Propionate",
    "olfactoryDescription": "Fresh, rose floral, with fruity sweet facets.",
    "vaporPressure": "0.007747 mm Hg @ 23°C"
}