{
    "facet": "Fruity, Floral, Rose",
    "family": "Fruity",
    "formula": "3,7-Dimethyl-6-octen-1-yl formate",
    "identificationNumbers": {
        "cas": "01-2120132106-71",
        "ipc": "034951",
        "reach": "01-2120132106-71"
    },
    "logP": "3.8",
    "name": "Citronellyl Formate",
    "olfactoryDescription": "Fresh citrus, grapefruit rind note similar to Limonene.",
    "vaporPressure": "0.03495 mm Hg @ 23°C"
}