{
    "facet": "Green, Floral, Fresh",
    "family": "Green",
    "formula": "Phenoxy acetaldehyde",
    "identificationNumbers": {
        "cas": "Not yet required",
        "ipc": "036361",
        "reach": "Not yet required"
    },
    "logP": "1.3",
    "name": "Cortex Aldehyde 50% Peomosa",
    "olfactoryDescription": "Green (stem like), floral (flower shop). Used in fragrances to give 'outdoors' character and freshness.",
    "vaporPressure": "0.023504 mm Hg @ 23°C"
}