{
    "facet": "Floral, Hyacinth, Narcisse",
    "family": "Floral",
    "formula": "para Tolyl acetate",
    "identificationNumbers": {
        "cas": "Not yet required",
        "ipc": "160481",
        "reach": "Not yet required"
    },
    "logP": "2.1",
    "name": "Cresyl Acetate Para Coeur",
    "olfactoryDescription": "Fresh lily like narcissus odor with a slight animalic note.",
    "vaporPressure": "0.11482 mm Hg @ 23°C"
}