{
    "facet": "Spicy, Herbal, Floral",
    "family": "Spicy",
    "formula": "para Cymen-7-ol",
    "identificationNumbers": {
        "cas": "Not yet required",
        "ipc": "037148",
        "reach": "Not yet required"
    },
    "logP": "2.7",
    "name": "Cuminyl Alcohol",
    "olfactoryDescription": "Warm spicy, herbaceous, caraway.",
    "vaporPressure": "0.008535 mm Hg @ 23°C"
}