{
    "facet": "Fruity, Apple, Woody",
    "family": "Fruity",
    "formula": "para Cymen-7-ol acetate",
    "identificationNumbers": {
        "cas": "Not yet required",
        "ipc": "037197",
        "reach": "Not yet required"
    },
    "logP": "3.3",
    "name": "Cuminyl Acetate",
    "olfactoryDescription": "Herbaceous, sweet with slight woody facets.",
    "vaporPressure": "0.008695 mm Hg @ 23°C"
}