{
    "facet": "Fruity, Melon",
    "family": "Fruity",
    "formula": "1,2,3,4,5,6,7,8-Octahydro-8,8-dimethyl-2-naphthaldehyde",
    "identificationNumbers": {
        "cas": "01-2120769904-40",
        "ipc": "037814",
        "reach": "01-2120769904-40"
    },
    "logP": "4.1",
    "name": "Cyclemone A",
    "olfactoryDescription": "A fresh clean, ozone marine complex with herbal aspects.",
    "vaporPressure": "0.008843 mm Hg @ 23°C"
}