{
    "facet": "Fruity, Floral, Tobacco",
    "family": "Fruity",
    "flashpoint": "101°C",
    "formula": "1-(2,6,6-Trimethyl-1-cyclohexen-1-yl)-2-buten-1-one",
    "gc": "See product data sheet",
    "identificationNumbers": {
        "cas": "23726-91-2",
        "ipc": "040845",
        "reach": "01-2120094433-55"
    },
    "impact": {
        "base": "1",
        "heart": "12",
        "top": "0"
    },
    "logP": "4.4",
    "molecularWeight": "192.3",
    "name": "Damascone Beta",
    "olfactiveId": "Nature",
    "olfactoryDescription": "Fruity, floral, fresh, green, woody, rose like odor. With plum, honey, tobacco and blackcurrant undertones.",
    "performanceTable": [
        {
            "performance": "Very Good",
            "product": "Fine Fragrance",
            "stability": "Good"
        },
        {
            "performance": "Moderate",
            "product": "Acid Cleaner",
            "stability": "Moderate"
        },
        {
            "performance": "Good",
            "product": "Liquid Detergent",
            "stability": "Good"
        },
        {
            "performance": "Moderate",
            "product": "Powder Detergent",
            "stability": "Moderate"
        },
        {
            "performance": "Good",
            "product": "Fabric Conditioner",
            "stability": "Good"
        },
        {
            "performance": "Good",
            "product": "AP Deo",
            "stability": "Moderate"
        },
        {
            "performance": "Good",
            "product": "Shampoo",
            "stability": "Good"
        },
        {
            "performance": "Good",
            "product": "Soap",
            "stability": "Good"
        },
        {
            "performance": "Good",
            "product": "Candles",
            "stability": "Good"
        },
        {
            "performance": "Poor",
            "product": "Bleach",
            "stability": "Poor"
        }
    ],
    "substantivity": "> 48 hours",
    "useLevel": "Traces to 0.1%",
    "uses": "Fine fragrance, personal care, fabric care, home care, candles",
    "vaporPressure": "0.015475 mm Hg @ 23°C",
    "visual": "Pale yellow liquid"
}