{
    "facet": "Fruity, Floral, Rose",
    "family": "Fruity",
    "flashpoint": "101°C",
    "formula": "1-(2,6,6-Trimethyl-2-cyclohexen-1-yl)-2-buten-1-one",
    "gc": "See product data sheet",
    "identificationNumbers": {
        "cas": "24720-09-0",
        "ipc": "040838",
        "reach": "01-2120105799-47"
    },
    "impact": {
        "base": "1",
        "heart": "12",
        "top": "0"
    },
    "logP": "4.3",
    "molecularWeight": "192.3",
    "name": "Damascone Alpha",
    "olfactiveId": "Nature",
    "olfactoryDescription": "Unique and sophisticated floral fruity note with a delicate and natural rose character. Complex apple note, mint and blackcurrant with plum undertones.",
    "performanceTable": [
        {
            "performance": "Very Good",
            "product": "Fine Fragrance",
            "stability": "Good"
        },
        {
            "performance": "Moderate",
            "product": "Acid Cleaner",
            "stability": "Moderate"
        },
        {
            "performance": "Good",
            "product": "Liquid Detergent",
            "stability": "Good"
        },
        {
            "performance": "Moderate",
            "product": "Powder Detergent",
            "stability": "Moderate"
        },
        {
            "performance": "Good",
            "product": "Fabric Conditioner",
            "stability": "Good"
        },
        {
            "performance": "Good",
            "product": "AP Deo",
            "stability": "Moderate"
        },
        {
            "performance": "Good",
            "product": "Shampoo",
            "stability": "Good"
        },
        {
            "performance": "Good",
            "product": "Soap",
            "stability": "Good"
        },
        {
            "performance": "Good",
            "product": "Candles",
            "stability": "Good"
        },
        {
            "performance": "Poor",
            "product": "Bleach",
            "stability": "Poor"
        }
    ],
    "substantivity": "> 48 hours",
    "useLevel": "Traces to 0.1%",
    "uses": "Fine fragrance, personal care, fabric care, home care, candles",
    "vaporPressure": "0.026691 mm Hg @ 23°C",
    "visual": "Colorless to pale yellow"
}