{
    "facet": "Herbal, Fruity, Woody",
    "family": "Herbal",
    "formula": "para Menthan-8-ol acetate",
    "identificationNumbers": {
        "cas": "01-2119983293-30",
        "ipc": "044170",
        "reach": "01-2119983293-30"
    },
    "logP": "4.1",
    "name": "Dihydro Terpinyl Acetate",
    "olfactoryDescription": "Fresh woody and cologne like.",
    "vaporPressure": "0.091983 mm Hg @ 23°C"
}