{
    "facet": "Herbal, Green, Fruity",
    "family": "Herbal",
    "formula": "Octahydro-4,7-methano-1H-inden-5-yl acetate",
    "identificationNumbers": {
        "cas": "01-2120735660-58",
        "ipc": "043890",
        "reach": "01-2120735660-58"
    },
    "logP": "3.4",
    "name": "Dihydro Cyclacet",
    "olfactoryDescription": "Green, herbal note, more like Basil oil than Cyclacet®. Very powerful.",
    "vaporPressure": "0.016649 mm Hg @ 23°C"
}