{
    "facet": "Floral, Citrus, Lime",
    "family": "Floral",
    "formula": "para Menthan-8-ol",
    "identificationNumbers": {
        "cas": "01-2119983276-26",
        "ipc": "044151",
        "reach": "01-2119983276-26"
    },
    "logP": "3.2",
    "name": "Dihydro Terpineol",
    "olfactoryDescription": "Intensely powerful, pine, earthy, green, lime odor.",
    "vaporPressure": "0.07688 mm Hg @ 23°C"
}