{
    "facet": "Rose, Floral, Balsamic",
    "family": "Floral",
    "formula": "alpha, alpha-Dimethyl phenylpropyl alcohol acetate",
    "identificationNumbers": {
        "cas": "Not yet required",
        "ipc": "044940",
        "reach": "Not yet required"
    },
    "logP": "3.5",
    "name": "Dimethyl Phenyl Ethyl Carbinyl Acetate",
    "olfactoryDescription": "Persistent sweet floral aroma with leafy qualities. Rich balsamic tone.",
    "vaporPressure": "0.011773 mm Hg @ 23°C"
}