{
    "facet": "Floral, Rose, Waxy",
    "family": "Floral",
    "formula": "3,7-Dimethyl-1-octanol",
    "identificationNumbers": {
        "cas": "01-2119955073-40",
        "ipc": "044819",
        "reach": "01-2119955073-40"
    },
    "logP": "3.9",
    "name": "Dimethyl Octanol",
    "olfactoryDescription": "Somewhat Citronellol like but heavier and more minty.",
    "vaporPressure": "0.018683 mm Hg @ 23°C"
}