{
    "facet": "Woody, Patchouli, Camphoraceous",
    "family": "Woody",
    "formula": "3a,4,5,6,7,7a-Hexahydro-2,6(or 3,6)-dimethyl-4,7-methano-1H-inden-5-ol",
    "identificationNumbers": {
        "cas": "01-2120755304-58",
        "ipc": "044725",
        "reach": "01-2120755304-58"
    },
    "logP": "3.1",
    "name": "Dimethyl Cyclormol",
    "olfactoryDescription": "Camphoraceous with earthy notes of patchouli. Useful in oriental and leathery scents.",
    "vaporPressure": "0.006723 mm Hg @ 23°C"
}