{
    "facet": "Citrus, Herbal, Fresh",
    "family": "Citrus",
    "formula": "2,6-Dimethyl-7-octen-2-yl formate with 2,6-Dimethyl-7-octen-2-ol",
    "identificationNumbers": {
        "cas": "",
        "ipc": "045165",
        "reach": ""
    },
    "logP": "3.5",
    "name": "Dimyrcetol",
    "olfactoryDescription": "A fresh citrus  of great power. Excellent performance to cost ratio.",
    "vaporPressure": "0.156125 mm Hg @ 23°C"
}