{
    "facet": "Fruity, Sweet, Raspberry",
    "family": "Fruity",
    "formula": "4-(1,3-Benzodioxol-5-yl)butan-2-one",
    "identificationNumbers": {
        "cas": "Not yet required",
        "ipc": "048775",
        "reach": "Not yet required"
    },
    "logP": "2.3",
    "name": "Dulcinyl® Recrystallized",
    "olfactoryDescription": "Extremely sweet odor reminding of raspberry, cotton candy (i.e. candy floss) blackberry jam with cassis, heliotrope associations.",
    "vaporPressure": "0.000126 mm Hg @ 23°C"
}