{
    "facet": "Fruity, Berry, Red Berry",
    "family": "Fruity",
    "formula": "Ethylphenyl-2,3-epoxypropionate",
    "identificationNumbers": {
        "cas": "01-2120755306-54",
        "ipc": "059245",
        "reach": "01-2120755306-54"
    },
    "logP": "2.2",
    "name": "Ethyl Phenyl Glycidate",
    "olfactoryDescription": "Sweet strawberry note.",
    "vaporPressure": "0.000861 mm Hg @ 23°C"
}