{
    "facet": "Floral, Jasmin, Ylang",
    "family": "Floral",
    "formula": "ortho Ethyl Methoxybenzoate",
    "identificationNumbers": {
        "cas": "Not yet required",
        "ipc": "059191",
        "reach": "Not yet required"
    },
    "logP": "3.4",
    "name": "Ethyl Ortho Methoxy Benzoate",
    "olfactoryDescription": "Ylang, tuberose floral complex.",
    "vaporPressure": "0.003874 mm Hg @ 23°C"
}