{
    "facet": "Floral, Jasmin",
    "family": "Floral",
    "formula": "2,4-(and 3,5-)Dimethylcyclohexane-1-methyl acetate",
    "identificationNumbers": {
        "cas": "Not yet required",
        "ipc": "043741",
        "reach": "Not yet required"
    },
    "logP": "4",
    "name": "Floralate Dihydro",
    "olfactoryDescription": "Floral, woody carvone, sweet Cortex Aldehyde note with slight grapefruit nuances.",
    "vaporPressure": "0.100227 mm Hg @ 23°C"
}