{
    "facet": "Green, Floral, Fresh",
    "family": "Floral",
    "formula": "2,4-Dimethyl-3-cyclohexene-1-methanol",
    "identificationNumbers": {
        "cas": "Not yet required",
        "ipc": "062974",
        "reach": "Not yet required"
    },
    "logP": "2.6",
    "name": "Floralol",
    "olfactoryDescription": "Fresh green floral, reminiscent of hyacinth and muguet.",
    "vaporPressure": "0.154216 mm Hg @ 23°C"
}