{
    "facet": "Fruity, Apple, Woody",
    "family": "Fruity",
    "formula": "Ethyl 2-methyl-1,3-dioxolane-2-acetate",
    "identificationNumbers": {
        "cas": "01-2119983692-24",
        "ipc": "067216",
        "reach": "01-2119983692-24"
    },
    "logP": "1",
    "name": "Fructone",
    "olfactoryDescription": "A strong, fruity, exotic fruit, pineapple, strawberry, apple-like note with a woody aspect reminding of sweet pine.",
    "vaporPressure": "0.047713 mm Hg @ 23°C"
}