{
    "facet": "Floral, Jasmin, Waxy",
    "family": "Floral",
    "formula": "alpha Acetyl ethyloctanoate",
    "identificationNumbers": {
        "cas": "Not yet required",
        "ipc": "072349",
        "reach": "Not yet required"
    },
    "logP": "3.7",
    "name": "Gelsone",
    "olfactoryDescription": "Lasting, strong, refreshing and decidedly jasmin-like with an intriguing wine bouquet.",
    "vaporPressure": "0.003141 mm Hg @ 23°C"
}