{
    "facet": "Rose, Fruity, Pear",
    "family": "Fruity",
    "formula": "(E)-(and (Z)-)3,7-Dimethyl-2,6-octadien-1-yl-acetate",
    "identificationNumbers": {
        "cas": "01-2119973480-35",
        "ipc": "Geranyl Acetate A071043Geranyl Acetate Extra071227Geranyl Acetate Pure071689",
        "reach": "01-2119973480-35"
    },
    "logP": "3.7",
    "name": "Geranyl Acetate",
    "olfactoryDescription": "Sweet fruity-floral, rosy with some green undertones.",
    "vaporPressure": "0.014914 mm Hg @ 23°C"
}