{
    "facet": "Rose, Fruity, Pear",
    "family": "Fruity",
    "formula": "",
    "identificationNumbers": {
        "cas": "",
        "ipc": "071043",
        "reach": ""
    },
    "logP": "3.7",
    "name": "Geranyl Acetate A",
    "olfactoryDescription": "",
    "vaporPressure": "0.014914 mm Hg @ 23°C"
}