{
    "facet": "Fruity, Rose, Sweet",
    "family": "Floral",
    "formula": "(E)-(and (Z)-)3,7-Dimethyl-2,6-octadien-1-yl-propionate",
    "identificationNumbers": {
        "cas": "Not yet required",
        "ipc": "073397",
        "reach": "Not yet required"
    },
    "logP": "4.2",
    "name": "Geranyl Propionate",
    "olfactoryDescription": "Sweet fruity rosy with balsamic and grape undertone.",
    "vaporPressure": "0.005782 mm Hg @ 23°C"
}