{
    "facet": "Fruity, Floral, Waxy",
    "family": "Fruity",
    "formula": "(E)-(and (Z)-)3,7-Dimethyl-2,6-octadien-1-yl-isobutyrate",
    "identificationNumbers": {
        "cas": "01-2120769424-48",
        "ipc": "073280",
        "reach": "01-2120769424-48"
    },
    "logP": "5.4",
    "name": "Geranyl Iso Butyrate",
    "olfactoryDescription": "A sweet fruity apple note with waxy undertones.",
    "vaporPressure": "0.005408 mm Hg @ 23°C"
}