{
    "facet": "Rose, Floral, Green",
    "family": "Floral",
    "formula": "(E)-(and (Z)-)3,7-Dimethyl-2,6-octadien-1-yl-formate",
    "identificationNumbers": {
        "cas": "Not yet required",
        "ipc": "073251",
        "reach": "Not yet required"
    },
    "logP": "3.3",
    "name": "Geranyl Formate",
    "olfactoryDescription": "Fresh green rosy, leafy note.",
    "vaporPressure": "0.031071 mm Hg @ 23°C"
}