{
    "facet": "Herbal, Woody, Camphoraceous",
    "family": "Herbal",
    "formula": "1-Ethynyl cyclohexanol acetate",
    "identificationNumbers": {
        "cas": "01-2120755297-45",
        "ipc": "082601",
        "reach": "01-2120755297-45"
    },
    "logP": "2",
    "name": "Herbacet",
    "olfactoryDescription": "Powerful, natural fresh woody tone with hay and honey, immortelle aspects.",
    "vaporPressure": "0.169238 mm Hg @ 23°C"
}