{
    "facet": "Fruity, Woody, Orris",
    "family": "Fruity",
    "formula": "1-(2,6,6-Trimethyl-2-cyclohexene-1-yl)-1,6-heptadien-3-one",
    "identificationNumbers": {
        "cas": "01-2120746535-50",
        "ipc": "082770",
        "reach": "01-2120746535-50"
    },
    "logP": "5.1",
    "name": "Hexalon",
    "olfactoryDescription": "An ionone product having an exceptional rich pineapple quality with natural, oily/waxy undertones.",
    "vaporPressure": "0.000566 mm Hg @ 23°C"
}