{
    "facet": "Floral, Green, Herbal",
    "family": "Green",
    "formula": "cis-3-Hexenyl-2-hydroxybenzoate",
    "identificationNumbers": {
        "cas": "01-2119987320-37",
        "ipc": "082855",
        "reach": "01-2119987320-37"
    },
    "logP": "4.4",
    "name": "Hexenyl Salicylate CIS-3",
    "olfactoryDescription": "Excellent blending agent for floral absolute reconstitutions. Mild green odor, very tenacious.",
    "vaporPressure": "0.000336 mm Hg @ 23°C"
}