{
    "facet": "Green, Balsamic, Spicy",
    "family": "Woody",
    "formula": "cis-3-Hexenyl benzoate",
    "identificationNumbers": {
        "cas": "01-2120525150-73",
        "ipc": "082851",
        "reach": "01-2120525150-73"
    },
    "logP": "4.1",
    "name": "Hexenyl Benzoate CIS-3",
    "olfactoryDescription": "Slightly green with a mild herbaceous quality.",
    "vaporPressure": "0.003347 mm Hg @ 23°C"
}