{
    "facet": "Woody, Balsamic, Cedar",
    "family": "Woody",
    "formula": "n-Hexyl benzoate",
    "identificationNumbers": {
        "cas": "01-2120768740-49",
        "ipc": "082894",
        "reach": "01-2120768740-49"
    },
    "logP": "4.8",
    "name": "Hexyl Benzoate, N-",
    "olfactoryDescription": "Fresh balsamic, clean woody note.",
    "vaporPressure": "0.001523 mm Hg @ 23°C"
}