{
    "facet": "Floral, Herbal, Green",
    "family": "Floral",
    "formula": "(2-(1-Propoxyethoxy)ethyl)benzene",
    "identificationNumbers": {
        "cas": "01-2120755300-66",
        "ipc": "088746",
        "reach": "01-2120755300-66"
    },
    "logP": "3.4",
    "name": "Hyacinth Body No. 3",
    "olfactoryDescription": "Powerful leafy green with facets of hyacinth.",
    "vaporPressure": "0.009135 mm Hg @ 23°C"
}