{
    "facet": "Floral, Herbal, Green",
    "family": "Floral",
    "formula": "{2-(1-Ethoxyethoxy)ethyl}benzene",
    "identificationNumbers": {
        "cas": "01-2120765766-38",
        "ipc": "088735",
        "reach": "01-2120765766-38"
    },
    "logP": "2.9",
    "name": "Hyacinth Body",
    "olfactoryDescription": "Green floral lilac, hyacinth and sweet pea note.",
    "vaporPressure": "0.023127 mm Hg @ 23°C"
}