{
    "facet": "Floral, Hyacinth, Green",
    "family": "Floral",
    "formula": "(2,2-Dimethoxy-1-methylethyl)-benzene",
    "identificationNumbers": {
        "cas": "Not yet required",
        "ipc": "089051",
        "reach": "Not yet required"
    },
    "logP": "2.6",
    "name": "Hydratropic Aldehyde DMA",
    "olfactoryDescription": "Green with a rose leaf odor and a mushroom note.",
    "vaporPressure": "0.065831 mm Hg @ 23°C"
}