{
    "facet": "Citrus, Aldehydic, Lemon",
    "family": "Citrus",
    "formula": "3,7-Dimethyl octanenitrile",
    "identificationNumbers": {
        "cas": "01-0000015327-71",
        "ipc": "080791",
        "reach": "01-0000015327-71"
    },
    "logP": "3.7",
    "name": "Hypo-LEM",
    "olfactoryDescription": "Citrus, aldehydic, fatty waxy with some metallic facets.",
    "vaporPressure": "0.104206 mm Hg @ 23°C"
}