{
    "facet": "Floral, Jasmin",
    "family": "Floral",
    "formula": "2,6-Dimethyl-8,8'-bis(1H-indol-1-yl)-2-octanol",
    "identificationNumbers": {
        "cas": "Not yet required",
        "ipc": "093619",
        "reach": "Not yet required"
    },
    "logP": "7.1",
    "name": "Indolene 50% DEP",
    "olfactoryDescription": "A floral, jasmin note with slight animalic character which is useful in extending natural absolute Jasmin.",
    "vaporPressure": "0.00000045 mm Hg @ 23°C"
}