{
    "facet": "Aldehydic, Floral, Fresh",
    "family": "Fresh",
    "formula": "8-,9 and 10-Undecenal, mixture of isomers",
    "identificationNumbers": {
        "cas": "01-2119980959-11",
        "ipc": "093760",
        "reach": "01-2119980959-11"
    },
    "logP": "4",
    "name": "Intreleven Aldehyde",
    "olfactoryDescription": "Intense aldehydic floral note with ozone, marine and citrus effects.",
    "vaporPressure": "0.033811 mm Hg @ 23°C"
}