{
    "facet": "Woody, Floral, Violet",
    "family": "Woody",
    "formula": "4-(2,6,6-Trimethyl-2-cyclohexen-1-yl)-3-buten-2-one (isomers)",
    "identificationNumbers": {
        "cas": "01-2119965149-27",
        "ipc": "094080",
        "reach": "01-2119965149-27"
    },
    "logP": "4",
    "name": "Ionone Alpha",
    "olfactoryDescription": "A fine quality of alpha ionone. This is the most floral and most violet-like of all the ionones.",
    "vaporPressure": "0.002211 mm Hg @ 23°C"
}