{
    "facet": "Green, Aldehydic, Herbal",
    "family": "Green",
    "formula": "2,4,6-Trimethyl-3-cyclohexene-1-carboxaldehyde",
    "identificationNumbers": {
        "cas": "01-2120120147-69",
        "ipc": "098671",
        "reach": "01-2120120147-69"
    },
    "logP": "2.9",
    "name": "Iso Cyclo Citral",
    "olfactoryDescription": "Sharp leafy note. Useful in Fougère bouquets and in hyacinth/sweet pea compositions.",
    "vaporPressure": "0.322531 mm Hg @ 23°C"
}
