{
    "facet": "Balsamic, Olibanum",
    "family": "Woody",
    "formula": "Isobutyl phenyl acetate",
    "identificationNumbers": {
        "cas": "Not yet required",
        "ipc": "098371",
        "reach": "Not yet required"
    },
    "logP": "3.3",
    "name": "Iso Butyl Phenyl Acetate",
    "olfactoryDescription": "Sweet balsamic, incense note.",
    "vaporPressure": "0.01394 mm Hg @ 23°C"
}