{
    "facet": "Floral, Herbal, Jasmin",
    "family": "Floral",
    "formula": "3-Pentyl tetrahydro-2H-pyran-4-ol acetate",
    "identificationNumbers": {
        "cas": "01-2120261963-49",
        "ipc": "100500",
        "reach": "01-2120261963-49"
    },
    "logP": "2.6",
    "name": "Jasmal",
    "olfactoryDescription": "Oily, plant like, herbaceous, lavender, slightly mushroomy, floral tea jasmin note.",
    "vaporPressure": "0.003801 mm Hg @ 23°C"
}