{
    "facet": "Floral, Jasmin, Waxy",
    "family": "Floral",
    "formula": "3-Butyl-5-methyl tetrahydro-2H-pyran-4-ol acetate",
    "identificationNumbers": {
        "cas": "01-2120771368-44",
        "ipc": "100505",
        "reach": "01-2120771368-44"
    },
    "logP": "2.5",
    "name": "Jasmelia",
    "olfactoryDescription": "Strong Jasmone odor with a hint of parsley which gives a jasmin absolute connotation.",
    "vaporPressure": "0.002867 mm Hg @ 23°C"
}