{
    "facet": "Floral, Jasmin, Earthy",
    "family": "Floral",
    "formula": "3-Butyl-5-methyl tetrahydro-2H-pyran-4-ol acetate",
    "identificationNumbers": {
        "cas": "01-2120771368-44",
        "ipc": "102563",
        "reach": "01-2120771368-44"
    },
    "logP": "2.5",
    "name": "Jessemal®",
    "olfactoryDescription": "A good jasmin note, extremely rich and stable.",
    "vaporPressure": "0.002867 mm Hg @ 23°C"
}