{
    "facet": "Floral, Jasmin, Lactonic",
    "family": "Floral",
    "flashpoint": "94°C",
    "formula": "Methyl 3-oxo-2-pentylcyclopentaneacetate",
    "gc": "Cis isomer 70-75%",
    "identificationNumbers": {
        "cas": "24851-98-7",
        "ipc": "110609",
        "reach": "01-2119493355-31"
    },
    "impact": {
        "base": "0",
        "heart": "23",
        "top": "23"
    },
    "logP": "3.1",
    "molecularWeight": "226.31",
    "name": "Kharismal® Super",
    "olfactiveId": "Air",
    "olfactoryDescription": "Floral, jasmin, citrus. Provides a natural bloom to floral creations. Very diffusive. More impactful than Kharismal®.",
    "performanceTable": [
        {
            "performance": "Excellent",
            "product": "Fine Fragrance",
            "stability": "Good"
        },
        {
            "performance": "Moderate",
            "product": "Acid Cleaner",
            "stability": "Moderate"
        },
        {
            "performance": "Good",
            "product": "Liquid Detergent",
            "stability": "Good"
        },
        {
            "performance": "Good",
            "product": "Powder Detergent",
            "stability": "Good"
        },
        {
            "performance": "Good",
            "product": "Fabric Conditioner",
            "stability": "Good"
        },
        {
            "performance": "Good",
            "product": "AP Deo",
            "stability": "Moderate"
        },
        {
            "performance": "Very Good",
            "product": "Shampoo",
            "stability": "Good"
        },
        {
            "performance": "Good",
            "product": "Soap",
            "stability": "Moderate"
        },
        {
            "performance": "Moderate",
            "product": "Candles",
            "stability": "Moderate"
        },
        {
            "performance": "Poor",
            "product": "Bleach",
            "stability": "Poor"
        }
    ],
    "substantivity": "> 48 hours",
    "useLevel": "Up to 20%",
    "uses": "Fine fragrance, personal care, fabric care, home care",
    "vaporPressure": "0.000245 mm Hg @ 23°C",
    "visual": "Clear liquid"
}