{
    "facet": "Floral, Herbal, Lavender",
    "family": "Floral",
    "formula": "1-Phenyl-4-pentene-1-one",
    "identificationNumbers": {
        "cas": "01-0000015208-73",
        "ipc": "120470",
        "reach": "01-0000015208-73"
    },
    "logP": "2.7",
    "name": "Lavonax",
    "olfactoryDescription": "Floral, balsamic, herbal and lavender with amber tones.",
    "vaporPressure": "0.022615 mm Hg @ 23°C"
}