{
    "facet": "Floral, Hyacinth, Muguet",
    "family": "Floral",
    "formula": "Benzoic acid, 2-[{3-(4-(1,1-dimethylethyl)phenyl)-2-methyl propylidene}amino]methyl ester-hydroxy-3,7-dimethyloctylidene}amino)methyl ester",
    "identificationNumbers": {
        "cas": "01-2120768903-43",
        "ipc": "121185",
        "reach": "01-2120768903-43"
    },
    "logP": "6.1",
    "name": "Lilianth",
    "olfactoryDescription": "Fresh green orangeflower, lily, citrus, hydroxycitronellal like note.",
    "vaporPressure": "0.000001 mm Hg @ 23°C"
}