{
    "facet": "Clean, Sweet, Lilac",
    "family": "Floral",
    "formula": "alpha-Terpineol",
    "identificationNumbers": {
        "cas": "01-2119553062-49",
        "ipc": "125590",
        "reach": "01-2119553062-49"
    },
    "logP": "2.6",
    "name": "Lindenol™",
    "olfactoryDescription": "Specially produced for fine perfumery. High purity offers outstanding odor value. Clean, delicate, sweet, lilac.",
    "vaporPressure": "0.048612 mm Hg @ 23°C"
}