{
    "facet": "Floral, Muguet, Aldehydic",
    "family": "Floral",
    "formula": "3- and 4-(4-Hydroxy-4-methyl-pentyl)cyclohexene-1-carboxaldehyde",
    "identificationNumbers": {
        "cas": "01-2119971808-21",
        "ipc": "129214",
        "reach": "01-2119971808-21"
    },
    "logP": "3.3",
    "name": "Lyral®",
    "olfactoryDescription": "Soft delicate floral, lily, cyclamen, lilac note reminiscent of hydrocycitronellal. Extraordinary tenacity and diffusivity. A powerful blending agent giving richness throughout all dryout phases of a perfume composition.",
    "vaporPressure": "0.000041 mm Hg @ 23°C"
}