{
    "facet": "Floral, Orange Blossom, Muguet",
    "family": "Floral",
    "formula": "Methyl 2-[{(4-(4-hydroxy-4-methylpentyl)-3-cyclohexenyl)methylene}amino]benzoate",
    "identificationNumbers": {
        "cas": "01-2120782755-40",
        "ipc": "120495",
        "reach": "01-2120782755-40"
    },
    "logP": "4.1",
    "name": "Lyrame Super",
    "olfactoryDescription": "Tenacious floral absolute odor with a very sweet, orange blossom profile. Increases the substantivity of a fragrance and provides fixation and floralcy as well.",
    "vaporPressure": "0.000001 mm Hg @ 23°C"
}