{
    "facet": "Woody, Leather, Vetivert",
    "family": "Woody",
    "formula": "Cedr-8-enyl methyl ketone",
    "identificationNumbers": {
        "cas": "01-2119969651-28",
        "ipc": "131687",
        "reach": "01-2119969651-28"
    },
    "logP": "5.7",
    "name": "MCK Chinese",
    "olfactoryDescription": "Warm, woody, cedarwood, resinous note with musk undertones. Long lasting.",
    "vaporPressure": "0.002926 mm Hg @ 23°C"
}