{
    "facet": "Green, Agrumen, Earthy",
    "family": "Green",
    "formula": "1-Acetyl-2,3,5-trimethyl-4-cyclohexene",
    "identificationNumbers": {
        "cas": "Not yet required",
        "ipc": "133383",
        "reach": "Not yet required"
    },
    "logP": "3",
    "name": "Meth Cyclocitrone",
    "olfactoryDescription": "Green floral odor with an earthy, dry background.",
    "vaporPressure": "0.090046 mm Hg @ 23°C"
}