{
    "facet": "Woody, Floral, Violet",
    "family": "Woody",
    "formula": "1-(2,6,6-Trimethyl-2-cyclohexen-1-yl)-1-penten-3-one",
    "identificationNumbers": {
        "cas": "01-2120769663-42",
        "ipc": "133732",
        "reach": "01-2120769663-42"
    },
    "logP": "4.6",
    "name": "Meth Ionone Beta Coeur",
    "olfactoryDescription": "Precious woody, orris tobacco note with violet nuances.",
    "vaporPressure": "0.004927 mm Hg @ 23°C"
}