{
    "facet": "Floral, Herbal, Lavender",
    "family": "Floral",
    "formula": "3-(Hydroxymethyl)nonan-2-one (and isomer)",
    "identificationNumbers": {
        "cas": "",
        "ipc": "133850",
        "reach": ""
    },
    "logP": "2.3",
    "name": "Methyl Lavender Ketone",
    "olfactoryDescription": "Strong with a sweet, herbal, metallic, lavender character. Traces are very effective.",
    "vaporPressure": "0.0009933 mm Hg @ 23°C"
}