{
    "facet": "Woody, Floral, Violet",
    "family": "Woody",
    "formula": "1-(2,6,6-Trimethyl-2-cyclohexen-1-yl)-1-penten-3-one",
    "identificationNumbers": {
        "cas": "01-2120769663-42",
        "ipc": "133720",
        "reach": "01-2120769663-42"
    },
    "logP": "4.6",
    "name": "Meth Ionone Alpha Extra",
    "olfactoryDescription": "Smooth beeswax, orris woody complex with violet nuances. Very diffusive and long lasting.",
    "vaporPressure": "0.00955 mm Hg @ 23°C"
}