{
    "facet": "Floral, Muguet, Rose",
    "family": "Floral",
    "formula": "3-Methyl-4-phenylbutan-2-ol",
    "identificationNumbers": {
        "cas": "01-2120525344-62",
        "ipc": "131542",
        "reach": "01-2120525344-62"
    },
    "logP": "2.9",
    "name": "Muguesia",
    "olfactoryDescription": "Floral muguet comes into its own where aldehydic muguet ingredients are not stable.",
    "vaporPressure": "0.00843 mm Hg @ 23°C"
}