{
    "facet": "Animalic, Musk",
    "family": "Musk",
    "flashpoint": "101°C",
    "formula": "Cyclopentadec-4-en-1-one",
    "gc": "See product data sheet",
    "identificationNumbers": {
        "cas": "14595-54-1 / 35720-57-7",
        "ipc": "140317",
        "reach": "01-2120711772-59"
    },
    "impact": {
        "base": "2",
        "heart": "2",
        "top": "1"
    },
    "logP": "5.33",
    "molecularWeight": "222.2",
    "name": "Musk Z 4",
    "olfactiveId": "Intimate",
    "olfactoryDescription": "Sensual macrocyclic musk, soft, powdery.",
    "performanceTable": [
        {
            "performance": "Very Good",
            "product": "Fine Fragrance",
            "stability": "Good"
        },
        {
            "performance": "Moderate",
            "product": "Acid Cleaner",
            "stability": "Moderate"
        },
        {
            "performance": "Good",
            "product": "Liquid Detergent",
            "stability": "Good"
        },
        {
            "performance": "Good",
            "product": "Powder Detergent",
            "stability": "Good"
        },
        {
            "performance": "Very Good",
            "product": "Fabric Conditioner",
            "stability": "Good"
        },
        {
            "performance": "Good",
            "product": "AP Deo",
            "stability": "Good"
        },
        {
            "performance": "Good",
            "product": "Shampoo",
            "stability": "Good"
        },
        {
            "performance": "Good",
            "product": "Soap",
            "stability": "Good"
        },
        {
            "performance": "Good",
            "product": "Candles",
            "stability": "Good"
        },
        {
            "performance": "Poor",
            "product": "Bleach",
            "stability": "Poor"
        }
    ],
    "substantivity": "> 48 hours",
    "useLevel": "Up to 10%",
    "uses": "Fine fragrance, personal care, fabric care, home care, candles",
    "vaporPressure": "0.000515 mm Hg @ 23°C",
    "visual": "Colorless to pale yellow liquid"
}