{
    "facet": "Fresh, Citrus",
    "family": "Citrus",
    "formula": "2-Methyl-6-methylene-7-octen-2-ol",
    "identificationNumbers": {
        "cas": "01-2119971807-23",
        "ipc": "132193",
        "reach": "01-2119971807-23"
    },
    "logP": "2.4",
    "name": "Myrcenol Super",
    "olfactoryDescription": "Fresh floral lavender, citrus.",
    "vaporPressure": "0.094104 mm Hg @ 23°C"
}