{
    "facet": "Citrus, Bergamot, Floral",
    "family": "Citrus",
    "formula": "2-Methyl-6-methylene-7-octen-2-ol acetate",
    "identificationNumbers": {
        "cas": "01-2120525254-63",
        "ipc": "139402",
        "reach": "01-2120525254-63"
    },
    "logP": "3.4",
    "name": "Myrcenyl Acetate",
    "olfactoryDescription": "Fresh, clean, citrus, metallic, pear, lavender, floral complex. Excellent cologne builder.",
    "vaporPressure": "0.0149 mm Hg @ 23°C"
}