{
    "facet": "Fruity, Pear, Floral",
    "family": "Fruity",
    "formula": "(Z)-3,7-Dimethyl-2,6-octadien-1-yl acetate",
    "identificationNumbers": {
        "cas": "",
        "ipc": "142755",
        "reach": ""
    },
    "logP": "3.84",
    "name": "Neryl Acetate A",
    "olfactoryDescription": "Sweet floral cologne note with dewy, pear tones.",
    "vaporPressure": "0.015889 mm Hg @ 23°C"
}