{
    "facet": "Fruity, Pear, Floral",
    "family": "Fruity",
    "formula": "(Z)-3,7-Dimethyl-2,6-octadien-1-yl acetate",
    "identificationNumbers": {
        "cas": "01-2120748334-54",
        "ipc": "142752",
        "reach": "01-2120748334-54"
    },
    "logP": "3.84",
    "name": "Neryl Acetate JAX",
    "olfactoryDescription": "Sweet floral cologne note with dewy, pear tones.",
    "vaporPressure": "0.015889 mm Hg @ 23°C"
}