{
    "facet": "Herbal, Lavender, Fresh",
    "family": "Herbal",
    "formula": "2,6-Dimethyl-5,7-octadien-2-ol",
    "identificationNumbers": {
        "cas": "Not yet required",
        "ipc": "151350",
        "reach": "Not yet required"
    },
    "logP": "2.4",
    "name": "Ocimenol",
    "olfactoryDescription": "Fresh citrus-cologne odor with sweet and destintive tones suggesting mace like qualities.",
    "vaporPressure": "0.038104 mm Hg @ 23°C"
}