{
    "facet": "Lavender, Citrus, Mango",
    "family": "Herbal",
    "flashpoint": "56°C",
    "formula": "3,7-Dimethyl-1,3,6-octatriene",
    "gc": "Sum isomers min. 90%",
    "identificationNumbers": {
        "cas": "13877-91-3",
        "ipc": "152008",
        "reach": "01-2120739475-47"
    },
    "impact": {
        "base": "0",
        "heart": "2",
        "top": "3"
    },
    "logP": "4.8",
    "molecularWeight": "136.2",
    "name": "Ocimene",
    "olfactiveId": "High Tech",
    "olfactoryDescription": "Complex note, mainly herbal lavender with green citrus, metallic and mango nuances.",
    "performanceTable": [
        {
            "performance": "Good",
            "product": "Fine Fragrance",
            "stability": "Good"
        },
        {
            "performance": "Good",
            "product": "Acid Cleaner",
            "stability": "Moderate"
        },
        {
            "performance": "Moderate",
            "product": "Liquid Detergent",
            "stability": "Good"
        },
        {
            "performance": "Moderate",
            "product": "Powder Detergent",
            "stability": "Moderate"
        },
        {
            "performance": "Good",
            "product": "Fabric Conditioner",
            "stability": "Good"
        },
        {
            "performance": "Good",
            "product": "AP Deo",
            "stability": "Moderate"
        },
        {
            "performance": "Good",
            "product": "Shampoo",
            "stability": "Good"
        },
        {
            "performance": "Good",
            "product": "Soap",
            "stability": "Good"
        },
        {
            "performance": "Good",
            "product": "Candles",
            "stability": "Good"
        },
        {
            "performance": "Poor",
            "product": "Bleach",
            "stability": "Poor"
        }
    ],
    "substantivity": "< 3 hours",
    "useLevel": "Up to 5%",
    "uses": "Fine fragrance, personal care, fabric care, home care, candles",
    "vaporPressure": "1.02436 mm Hg @ 23°C",
    "visual": "Clear liquid"
}