{
    "facet": "Herbal, Lavender, Fresh",
    "family": "Herbal",
    "formula": "2,6-Dimethyl-5,7-octadien-2-ol acetate",
    "identificationNumbers": {
        "cas": "Not yet required",
        "ipc": "151355",
        "reach": "Not yet required"
    },
    "logP": "3.4",
    "name": "Ocimenyl Acetate",
    "olfactoryDescription": "Fresh, herbal citrus top note.",
    "vaporPressure": "0.03192 mm Hg @ 23°C"
}