{
    "facet": "Woody, Orris, Champhoraceous",
    "family": "Woody",
    "formula": "4-tert-Amylcyclohexanone",
    "identificationNumbers": {
        "cas": "",
        "ipc": "158474",
        "reach": ""
    },
    "logP": "3.4",
    "name": "Orivone",
    "olfactoryDescription": "A powerful orris type aroma. Very economical. Camphoraceous, earthy, orris.",
    "vaporPressure": "0.031743 mm Hg @ 23°C"
}