{
    "facet": "Herbal, Minty, Camphoraceous",
    "family": "Herbal",
    "formula": "4-Methylene-1-oxaspiro[5.5]undecane",
    "identificationNumbers": {
        "cas": "01-2120768736-38",
        "ipc": "158661",
        "reach": "01-2120768736-38"
    },
    "logP": "3.4",
    "name": "Oxaspirane-819",
    "olfactoryDescription": "Powerful herbal, minty camphoraceous notes reminding of cedarleaf and lavender notes.",
    "vaporPressure": "0.161194 mm Hg @ 23°C"
}