{
    "facet": "Hyacinth, Lilac, Cyclemen",
    "family": "Floral",
    "formula": "2-Benzyl-1,3-dioxolane-4-methanol",
    "identificationNumbers": {
        "cas": "01-2120735658-43",
        "ipc": "163746",
        "reach": "01-2120735658-43"
    },
    "logP": "0.8",
    "name": "Phenyl Acetaldehyde Glycerine Acetal",
    "olfactoryDescription": "Tenacious heart note with honey, cyclamen and rose character.",
    "vaporPressure": "0.00004 mm Hg @ 23°C"
}