{
    "facet": "Balsamic, Honey, Floral",
    "family": "Floral",
    "formula": "Phenyl ethyl phenyl acetate",
    "identificationNumbers": {
        "cas": "01-2120104570-72",
        "ipc": "164287",
        "reach": "01-2120104570-72"
    },
    "logP": "3.9",
    "name": "Phenyl Ethyl Phenyl Acetate",
    "olfactoryDescription": "Honey characteristic that blends well with most floral notes. Long lasting.",
    "vaporPressure": "0.000528 mm Hg @ 23°C"
}