{
    "facet": "Floral, Jasmin, Balsamic",
    "family": "Floral",
    "formula": "Phenyl ethyl benzoate",
    "identificationNumbers": {
        "cas": "Not yet required",
        "ipc": "164000",
        "reach": "Not yet required"
    },
    "logP": "4.2",
    "name": "Phenyl Ethyl Benzoate",
    "olfactoryDescription": "Rose, balsamic note with honey undertones.",
    "vaporPressure": "0.000073 mm Hg @ 23°C"
}