{
    "facet": "Woody, Patchouli, Earthy",
    "family": "Woody",
    "flashpoint": "94°C",
    "formula": "1,3,4,6,7,8a-Hexahydro-1,1,5,5-tetramethyl-2H-2,4a-methanonaphthalen-8(5H)-one (isomers)",
    "gc": "Sum ketones min. 83%",
    "identificationNumbers": {
        "cas": "23787-90-8",
        "ipc": "164700",
        "reach": "01-2120136162-69"
    },
    "impact": {
        "base": "2",
        "heart": "2",
        "top": "2"
    },
    "logP": "3.81",
    "molecularWeight": "220.2",
    "name": "Piconia",
    "olfactiveId": "Primitive",
    "olfactoryDescription": "A dry, diffusive, woody, earthy, pine, patchouli note. Long lasting.",
    "performanceTable": [
        {
            "performance": "Very Good",
            "product": "Fine Fragrance",
            "stability": "Very Good"
        },
        {
            "performance": "Good",
            "product": "Acid Cleaner",
            "stability": "Good"
        },
        {
            "performance": "Good",
            "product": "Liquid Detergent",
            "stability": "Very Good"
        },
        {
            "performance": "Good",
            "product": "Powder Detergent",
            "stability": "Good"
        },
        {
            "performance": "Good",
            "product": "Fabric Conditioner",
            "stability": "Good"
        },
        {
            "performance": "Good",
            "product": "AP Deo",
            "stability": "Good"
        },
        {
            "performance": "Good",
            "product": "Shampoo",
            "stability": "Very Good"
        },
        {
            "performance": "Good",
            "product": "Soap",
            "stability": "Good"
        },
        {
            "performance": "Good",
            "product": "Candles",
            "stability": "Very Good"
        },
        {
            "performance": "Poor",
            "product": "Bleach",
            "stability": "Poor"
        }
    ],
    "substantivity": "> 48 hours",
    "useLevel": "Up to 15%",
    "uses": "Fine fragrance, personal care, fabric care, home care",
    "vaporPressure": "0.00298 mm Hg @ 23°C",
    "visual": "Pale yellow to yellow liquid"
}