{
    "facet": "Fresh, Lavender, Citrus",
    "family": "Floral",
    "formula": "Mixture",
    "identificationNumbers": {
        "cas": "01-2120525254-63",
        "ipc": "167740",
        "reach": "01-2120525254-63"
    },
    "logP": "",
    "name": "Pseudo Linalyl Acetate",
    "olfactoryDescription": "Refreshing bergamot and lavender notes with a slight hint of nutmeg spice.",
    "vaporPressure": "0.0149 mm Hg @ 23°C"
}