{
    "facet": "Floral, Hyacinth, Green",
    "family": "Floral",
    "formula": "2-Benzyl-4,4,6-trimethyl-1,3-dioxane",
    "identificationNumbers": {
        "cas": "01-2120289999-22",
        "ipc": "182502",
        "reach": "01-2120289999-22"
    },
    "logP": "3.4",
    "name": "Reseda Body",
    "olfactoryDescription": "Delicate but powerful hyacinth, narcissus, reseda note with some sweet pea, string bean and green aspects.",
    "vaporPressure": "0.00298 mm Hg @ 23°C"
}