{
    "facet": "Floral, Rose, Peony",
    "family": "Floral",
    "formula": "9-Decen-1-ol acetate",
    "identificationNumbers": {
        "cas": "Not yet required",
        "ipc": "186757",
        "reach": "Not yet required"
    },
    "logP": "4.5",
    "name": "Roseate",
    "olfactoryDescription": "Delicate moist rose petal tone with gentle power.",
    "vaporPressure": "0.011 mm Hg @ 23°C"
}