{
    "facet": "Herbal, Camphoraceous, Clean",
    "family": "Herbal",
    "formula": "beta Pinene epoxide",
    "identificationNumbers": {
        "cas": "01-2120755294-51",
        "ipc": "187045",
        "reach": "01-2120755294-51"
    },
    "logP": "3",
    "name": "Rosemarel",
    "olfactoryDescription": "Dry, herbal note of rosemary and sage but without a medicinal note.",
    "vaporPressure": "0.422 mm Hg @ 23°C"
}