{
    "facet": "Balsamic, Clover, Styrax",
    "family": "Herbal",
    "formula": "2-Phenylhexanenitrile",
    "identificationNumbers": {
        "cas": "01-0000016995-55",
        "ipc": "190979",
        "reach": "01-0000016995-55"
    },
    "logP": "3.5",
    "name": "Salicynalva",
    "olfactoryDescription": "A unique combination of clover, styrax and balsam notes.",
    "vaporPressure": "0.004694 mm Hg @ 23°C"
}