{
    "facet": "Woody, Sandalwood",
    "family": "Woody",
    "formula": "2-Methyl-4-(2,2,3-trimethyl-3-cyclopentenyl)-2-buten-1-ol",
    "identificationNumbers": {
        "cas": "Not yet required",
        "ipc": "190237",
        "reach": "Not yet required"
    },
    "logP": "4",
    "name": "Santaliff™",
    "olfactoryDescription": "Sandalwood, woody, milky, creamy. To give increased substantivity and sandalwood character to fragrances.",
    "vaporPressure": "0.001998 mm Hg @ 23°C"
}