{
    "facet": "Herbal, Eucalyptus, Woody",
    "family": "Herbal",
    "formula": "1,5-Dioxaspiro[5.5]undecane",
    "identificationNumbers": {
        "cas": "Not yet required",
        "ipc": "197075",
        "reach": "Not yet required"
    },
    "logP": "2.6",
    "name": "Spirodecane",
    "olfactoryDescription": "Herbal, eucalyptus, woody with some thujone character.",
    "vaporPressure": "0.323 mm Hg @ 23°C"
}