{
    "facet": "Green, Fruity, Floral",
    "family": "Green",
    "flashpoint": "74°C",
    "formula": "2-(1-Ethylpentyl)-1,3-dioxolane",
    "gc": "Min. 98%",
    "identificationNumbers": {
        "cas": "4359-47-1",
        "ipc": "199900",
        "reach": "01-2120739620-58"
    },
    "impact": {
        "base": "0",
        "heart": "2",
        "top": "3"
    },
    "logP": "2.98",
    "molecularWeight": "172.3",
    "name": "Syvertal",
    "olfactiveId": "Nature",
    "olfactoryDescription": "Very strong, green, wet, earthy, fruity and radish-like. Also reminiscent of chrysanthemum and gardenia.",
    "performanceTable": [
        {
            "performance": "Good",
            "product": "Fine Fragrance",
            "stability": "Very Good"
        },
        {
            "performance": "Moderate",
            "product": "Acid Cleaner",
            "stability": "Moderate"
        },
        {
            "performance": "Good",
            "product": "Liquid Detergent",
            "stability": "Very Good"
        },
        {
            "performance": "Good",
            "product": "Powder Detergent",
            "stability": "Very Good"
        },
        {
            "performance": "Good",
            "product": "Fabric Conditioner",
            "stability": "Moderate"
        },
        {
            "performance": "Good",
            "product": "AP Deo",
            "stability": "Good"
        },
        {
            "performance": "Good",
            "product": "Shampoo",
            "stability": "Very Good"
        },
        {
            "performance": "Good",
            "product": "Soap",
            "stability": "Good"
        },
        {
            "performance": "Good",
            "product": "Candles",
            "stability": "Good"
        },
        {
            "performance": "Good",
            "product": "Bleach",
            "stability": "Good"
        }
    ],
    "substantivity": "< 3 hours",
    "useLevel": "Up to 10%",
    "uses": "Fine fragrance, personal care, fabric care, home care",
    "vaporPressure": "0.146554 mm Hg @ 23°C",
    "visual": "Clear liquid"
}