{
    "facet": "Fruity, Woody, Herbal",
    "family": "Fruity",
    "formula": "",
    "identificationNumbers": {
        "cas": "",
        "ipc": "202910",
        "reach": ""
    },
    "logP": "4.3",
    "name": "Terpinyl Acet Jax",
    "olfactoryDescription": "",
    "vaporPressure": "0.026365 mm Hg @ 23°C"
}