{
    "facet": "Hyacinth, Lilac, Pine",
    "family": "Floral",
    "formula": "Mixture",
    "identificationNumbers": {
        "cas": "01-2119529223-47",
        "ipc": "200493",
        "reach": "01-2119529223-47"
    },
    "logP": "4.9",
    "name": "Terpinol",
    "olfactoryDescription": "Citrus, floral note with slight pine nuance.",
    "vaporPressure": "0.0423 mm Hg @ 23°C"
}