{
    "facet": "Pine, Citrus",
    "family": "Citrus",
    "formula": "para Menth-1,4-diene",
    "identificationNumbers": {
        "cas": "01-2119982325-32",
        "ipc": "Terpinolene 20202825Terpinolene 90201132Terpinolene 90 PQ200647Terpinolene Rectified200491",
        "reach": "01-2119982325-32"
    },
    "logP": "4.9",
    "name": "Terpinolene",
    "olfactoryDescription": "Fresh, pine-lime top note.",
    "vaporPressure": "1.486473 mm Hg @ 23°C"
}