{
    "facet": "Green, Citrus, Herbal",
    "family": "Green",
    "formula": "2,4-Dimethyl-3-cyclohexene-1-carboxaldehyde",
    "identificationNumbers": {
        "cas": "01-2119982384-28",
        "ipc": "013090",
        "reach": "01-2119982384-28"
    },
    "logP": "3",
    "name": "Triplal®",
    "olfactoryDescription": "Powerful, green, grass odor that connotes the concentrated refreshing tartness of lemon and bergamot peels.",
    "vaporPressure": "0.7228 mm Hg @ 23°C"
}