{
    "facet": "Fruity, Peach, Lactonic",
    "family": "Fruity",
    "formula": "5-Heptyl dihydro-2(3H)-furanone",
    "identificationNumbers": {
        "cas": "Not yet required",
        "ipc": "162511",
        "reach": "Not yet required"
    },
    "logP": "4",
    "name": "Undecalactone Gamma Coeur",
    "olfactoryDescription": "Creamy, fruity, peach, coconut, lactonic.",
    "vaporPressure": "0.000507 mm Hg @ 23°C"
}