{
    "facet": "Herbal, Pine, Fresh",
    "family": "Herbal",
    "formula": "Mixture",
    "identificationNumbers": {
        "cas": "01-2119553062-49",
        "ipc": "216015",
        "reach": "01-2119553062-49"
    },
    "logP": "",
    "name": "Unipine® 85",
    "olfactoryDescription": "Fresh pine, economical.",
    "vaporPressure": "0.2034 mm Hg @ 23°C"
}