{
    "facet": "Herbal, Pine, Fresh",
    "family": "Herbal",
    "formula": "Mixture",
    "identificationNumbers": {
        "cas": "Blend",
        "ipc": "210849",
        "reach": "Blend"
    },
    "logP": "",
    "name": "Unipine® 60",
    "olfactoryDescription": "Fresh pine, economical.",
    "vaporPressure": "0.3949 mm Hg @ 23°C"
}