{
    "facet": "Orange, Woody, Fresh",
    "family": "Citrus",
    "formula": "5,6-Dimethyl-8-isopropenylbicyclo[4.4.0]-1-decen",
    "identificationNumbers": {
        "cas": "01-2119493353-35",
        "ipc": "221114",
        "reach": "01-2119493353-35"
    },
    "logP": "6.7",
    "name": "Valencene",
    "olfactoryDescription": "Orange, citrus, woody odor.",
    "vaporPressure": "0.0109 mm Hg @ 23°C"
}