{
    "facet": "Aldehydic, Green, Citrus",
    "family": "Green",
    "formula": "3,5,5-Trimethyl hexanal",
    "identificationNumbers": {
        "cas": "01-2119404656-40",
        "ipc": "220429",
        "reach": "01-2119404656-40"
    },
    "logP": "3.1",
    "name": "Vandor B",
    "olfactoryDescription": "Powerful aldehydic green note with a fresh clean impression.",
    "vaporPressure": "0.938659 mm Hg @ 23°C"
}