{
    "facet": "Pine, Minty, Patchouli",
    "family": "Herbal",
    "formula": "2-tert Butyl cyclohexanol",
    "identificationNumbers": {
        "cas": "Not yet required",
        "ipc": "222490",
        "reach": "Not yet required"
    },
    "logP": "3.3",
    "name": "Verdol",
    "olfactoryDescription": "Very powerful camphoraceous, minty odor which works well in pine and patchouli directions.",
    "vaporPressure": "0.202238 mm Hg @ 23°C"
}