{
    "facet": "Herbal, Minty, Camphoreacous",
    "family": "Herbal",
    "formula": "2-tert Butyl cyclohexanone",
    "identificationNumbers": {
        "cas": "Not yet required",
        "ipc": "222494",
        "reach": "Not yet required"
    },
    "logP": "2.8",
    "name": "Verdone",
    "olfactoryDescription": "Powerful woody camphoraceous odor with great intensity and consistency.",
    "vaporPressure": "0.348 mm Hg @ 23°C"
}