{
    "facet": "Woody, Floral, Fruity",
    "family": "Woody",
    "formula": "4-tert-Butylcyclohexyl acetate",
    "identificationNumbers": {
        "cas": "01-2119976286-24",
        "ipc": "222635",
        "reach": "01-2119976286-24"
    },
    "logP": "4.2",
    "name": "Vertenex®",
    "olfactoryDescription": "Sweet, rich and woody. This material blends well with ionones and enriches the odor quality of fragrances for functional products. Economical.",
    "vaporPressure": "0.03551 mm Hg @ 23°C"
}