{
    "general": {
        "description": "Ambrettolide is a macrocyclic musk with an exceptional diffusion and a very fine character.Its influence in a composition can beperceived at all evaporation levels. It is a superb fixative and highly substantive, and yet exalts the top note of a fragrance in anexceptional manner.",
        "family": "Musky",
        "givaudanNumber": "1832003",
        "name": "Ambrettolide",
        "note": [
            "Musky",
            "Ambrette seed",
            "Powerful",
            "Warm",
            "Fruity"
        ]
    },
    "performance": {
        "bloomInSoap": "Moderate",
        "burningEffectiveness": "Good",
        "substantivityDamp": "Good",
        "substantivityDry": "Good",
        "tenacityOnBlotter": "1 month",
        "useLevel": "Traces - 2%"
    },
    "physicoChemicalProperties": {
        "casNumber": "28645-51-4",
        "formula": "C16H28O2",
        "logP": ">6.0",
        "molecularWeight": "252.4",
        "name": "Oxacycloheptadec-10-en-2-one",
        "vapourPressure": "<1.0000 hPa"
    },
    "stability": {
        "APC": {
            "odour": "Good",
            "ph": "9"
        },
        "acidCleaner": {
            "odour": "Poor",
            "ph": "2"
        },
        "antiperspirant": {
            "odour": "Poor",
            "ph": "3.5"
        },
        "bleach": {
            "odour": "Poor",
            "ph": "11"
        },
        "fabricConditioner": {
            "odour": "Good",
            "ph": "3"
        },
        "fabricDetergentLiquid": {
            "odour": "Good",
            "ph": "9"
        },
        "powderDetergent": {
            "odour": "Good",
            "ph": "10.5"
        },
        "shampoo": {
            "odour": "Good",
            "ph": "6"
        },
        "soap": {
            "odour": "Good",
            "ph": "10"
        }
    }
}