{
    "general": {
        "description": "Berryflor is a floral, fruity, raspberry-like product with jasmine, anisic and balsamic aspects.It blends well with floral, woody andmusky notes, and with the Isoraldeines and other ionones. It enriches and softens accords in all fields of perfumery.",
        "family": "Fruity",
        "givaudanNumber": "5206903",
        "name": "Berryflor®",
        "note": [
            "Fruity",
            "Raspberry",
            "Floral",
            "Fresh",
            "Balsamic"
        ]
    },
    "performance": {
        "bloomInSoap": "Moderate",
        "burningEffectiveness": "Good",
        "substantivityDamp": "Moderate",
        "substantivityDry": "Poor",
        "tenacityOnBlotter": "1 day",
        "useLevel": "2 - 25%"
    },
    "physicoChemicalProperties": {
        "casNumber": "104986-28-9",
        "formula": "C10H18O4",
        "logP": "2",
        "molecularWeight": "202.2",
        "name": "Ethyl 6-acetoxyhexanoate",
        "vapourPressure": "0.0150 hPa"
    },
    "stability": {
        "APC": {
            "odour": "Poor",
            "ph": "9"
        },
        "acidCleaner": {
            "odour": "Poor",
            "ph": "2"
        },
        "antiperspirant": {
            "odour": "Moderate",
            "ph": "3.5"
        },
        "bleach": {
            "odour": "Moderate",
            "ph": "11"
        },
        "fabricConditioner": {
            "odour": "Good",
            "ph": "3"
        },
        "fabricDetergentLiquid": {
            "odour": "Moderate",
            "ph": "9"
        },
        "powderDetergent": {
            "odour": "Moderate",
            "ph": "10.5"
        },
        "shampoo": {
            "odour": "Good",
            "ph": "6"
        },
        "soap": {
            "odour": "Good",
            "ph": "10"
        }
    }
}