{
    "general": {
        "description": "Celery Ketone is used as a modifier of aldehydic chypres and fougeres. It blends well with basil and tarragon oils in top notecompositions, and also supports jasmine complexes. Celery Ketone is very useful wherever lovage and celery notes are desired.",
        "family": "Herbal",
        "givaudanNumber": "3491103",
        "name": "Celery Ketone",
        "note": [
            "Herbal",
            "Spicy",
            "Celery"
        ]
    },
    "performance": {
        "bloomInSoap": "Good",
        "burningEffectiveness": "Good",
        "substantivityDamp": "Moderate",
        "substantivityDry": "Poor",
        "tenacityOnBlotter": "16 hours",
        "useLevel": "Traces - 3%"
    },
    "physicoChemicalProperties": {
        "casNumber": "3720-16-9",
        "formula": "C10H16O",
        "logP": "2,8",
        "molecularWeight": "152.2",
        "name": "3-Methyl-5-propyl-2-cyclohexen-1-one",
        "vapourPressure": "0.0267 hPa"
    },
    "stability": {
        "APC": {
            "odour": "Good",
            "ph": "9"
        },
        "acidCleaner": {
            "odour": "Moderate",
            "ph": "2"
        },
        "antiperspirant": {
            "odour": "Good",
            "ph": "3.5"
        },
        "bleach": {
            "odour": "Poor",
            "ph": "11"
        },
        "fabricConditioner": {
            "odour": "Good",
            "ph": "3"
        },
        "fabricDetergentLiquid": {
            "odour": "Good",
            "ph": "9"
        },
        "powderDetergent": {
            "odour": "Moderate",
            "ph": "10.5"
        },
        "shampoo": {
            "odour": "Good",
            "ph": "6"
        },
        "soap": {
            "odour": "Good",
            "ph": "10"
        }
    }
}