{
    "general": {
        "description": "Cervolide has a fine musk note, slightly fruity with a woody background.",
        "family": "Musky",
        "givaudanNumber": "7225001",
        "name": "Cervolide",
        "note": [
            "Musky",
            "Powdery"
        ]
    },
    "performance": {
        "bloomInSoap": "Poor",
        "burningEffectiveness": "Good",
        "substantivityDamp": "Moderate",
        "substantivityDry": "Moderate",
        "tenacityOnBlotter": "Several months",
        "useLevel": "2 - 10%"
    },
    "physicoChemicalProperties": {
        "casNumber": "6707-60-4",
        "formula": "C15H28O3",
        "logP": "3,7",
        "molecularWeight": "256,3",
        "name": "1,6-Dioxacycloheptadecan-7-one",
        "vapourPressure": "0.2160 hPa (25°C)"
    },
    "stability": {
        "APC": {
            "odour": "Good",
            "ph": "9"
        },
        "acidCleaner": {
            "odour": "Poor",
            "ph": "2"
        },
        "antiperspirant": {
            "odour": "Moderate",
            "ph": "3.5"
        },
        "bleach": {
            "odour": "Poor",
            "ph": "11"
        },
        "fabricConditioner": {
            "odour": "Good",
            "ph": "3"
        },
        "fabricDetergentLiquid": {
            "odour": "Good",
            "ph": "9"
        },
        "powderDetergent": {
            "odour": "Good",
            "ph": "10.5"
        },
        "shampoo": {
            "odour": "Good",
            "ph": "6"
        },
        "soap": {
            "odour": "Good",
            "ph": "10"
        }
    }
}