{
    "general": {
        "description": "Pivarose is a floral tea-rose note with a fruity balsamic character and a hint of honey sweetness.It is a useful modifier of the morecommon rose alcohols and esters.",
        "family": "Floral",
        "givaudanNumber": "3496423",
        "name": "Pivarose",
        "note": [
            "Floral",
            "Rosy",
            "Fruity"
        ]
    },
    "performance": {
        "bloomInSoap": "Poor",
        "burningEffectiveness": "Good",
        "substantivityDamp": "Moderate",
        "substantivityDry": "Poor",
        "tenacityOnBlotter": "",
        "useLevel": "Up to 3%"
    },
    "physicoChemicalProperties": {
        "casNumber": "67662-96-8",
        "formula": "C13H18O2",
        "logP": "3,5",
        "molecularWeight": "206.0",
        "name": "2-Phenylethyl 2,2-dimethylpropanoate",
        "vapourPressure": "0.0133 hPa"
    },
    "stability": {
        "APC": {
            "odour": "Good",
            "ph": "9"
        },
        "acidCleaner": {
            "odour": "Moderate",
            "ph": "2"
        },
        "antiperspirant": {
            "odour": "Moderate",
            "ph": "3.5"
        },
        "bleach": {
            "odour": "Poor",
            "ph": "11"
        },
        "fabricConditioner": {
            "odour": "Good",
            "ph": "3"
        },
        "fabricDetergentLiquid": {
            "odour": "Good",
            "ph": "9"
        },
        "powderDetergent": {
            "odour": "Moderate",
            "ph": "10.5"
        },
        "shampoo": {
            "odour": "Good",
            "ph": "6"
        },
        "soap": {
            "odour": "Good",
            "ph": "10"
        }
    }
}