{
    "general": {
        "description": "Ethyl Methyl-2-Butyrate has a very diffusive fruity effect that serves as a modifier in floral accords or in combination with fruityesters.",
        "family": "Fruity",
        "givaudanNumber": "6892801",
        "name": "Ethyl Methyl-2-Butyrate",
        "note": [
            "Fruity",
            "Green",
            "Apple",
            "Pineapple skin",
            "Diffusive"
        ]
    },
    "performance": {
        "bloomInSoap": "Good",
        "burningEffectiveness": "Good",
        "substantivityDamp": "Poor",
        "substantivityDry": "Poor",
        "tenacityOnBlotter": "30 minutes",
        "useLevel": "0.1% - 2%"
    },
    "physicoChemicalProperties": {
        "casNumber": "7452-79-1",
        "formula": "C7H14O2",
        "logP": "1,6",
        "molecularWeight": "130.1",
        "name": "Ethyl 2-methylbutanoate",
        "vapourPressure": "7.4657 hPa"
    },
    "stability": {
        "APC": {
            "odour": "Good",
            "ph": "9"
        },
        "acidCleaner": {
            "odour": "Moderate",
            "ph": "2"
        },
        "antiperspirant": {
            "odour": "Moderate",
            "ph": "3.5"
        },
        "bleach": {
            "odour": "Poor",
            "ph": "11"
        },
        "fabricConditioner": {
            "odour": "Moderate",
            "ph": "3"
        },
        "fabricDetergentLiquid": {
            "odour": "Good",
            "ph": "9"
        },
        "powderDetergent": {
            "odour": "Moderate",
            "ph": "10.5"
        },
        "shampoo": {
            "odour": "Good",
            "ph": "6"
        },
        "soap": {
            "odour": "Good",
            "ph": "10"
        }
    }
}