{
    "general": {
        "description": "Folione, used in traces, produces violet-leaf and cucumber notes. It blends extremely well with products in the orris family likethe Isoraldeines and the ionones.",
        "family": "Green",
        "givaudanNumber": "5093003",
        "name": "Folione®",
        "note": [
            "Green",
            "Leafy",
            "Floral",
            "Powerful"
        ]
    },
    "performance": {
        "bloomInSoap": "Good",
        "burningEffectiveness": "Good",
        "substantivityDamp": "Moderate",
        "substantivityDry": "Poor",
        "tenacityOnBlotter": "16 hours",
        "useLevel": "Traces - 0.1%"
    },
    "physicoChemicalProperties": {
        "casNumber": "111-12-6",
        "formula": "C9H14O2",
        "logP": "3,4",
        "molecularWeight": "154.2",
        "name": "Methyl 2-octynoate",
        "vapourPressure": "0.0933 hPa"
    },
    "stability": {
        "APC": {
            "odour": "Good",
            "ph": "9"
        },
        "acidCleaner": {
            "odour": "Moderate",
            "ph": "2"
        },
        "antiperspirant": {
            "odour": "Moderate",
            "ph": "3.5"
        },
        "bleach": {
            "odour": "Moderate",
            "ph": "11"
        },
        "fabricConditioner": {
            "odour": "Good",
            "ph": "3"
        },
        "fabricDetergentLiquid": {
            "odour": "Moderate",
            "ph": "9"
        },
        "powderDetergent": {
            "odour": "Moderate",
            "ph": "10.5"
        },
        "shampoo": {
            "odour": "Good",
            "ph": "6"
        },
        "soap": {
            "odour": "Good",
            "ph": "10"
        }
    }
}