{
    "general": {
        "description": "Geranodyle is a complex mixture with a fresh geranium odour.A top note ingredient, it has good diffusivity and increases thefruity character of compositions.",
        "family": "Floral",
        "givaudanNumber": "5464203",
        "name": "Geranodyle",
        "note": [
            "Floral",
            "Geranium",
            "Rose",
            "Fruity"
        ]
    },
    "performance": {
        "bloomInSoap": "Good",
        "burningEffectiveness": "Good",
        "substantivityDamp": "Moderate",
        "substantivityDry": "Poor",
        "tenacityOnBlotter": "20 hours",
        "useLevel": "1% - 5%"
    },
    "physicoChemicalProperties": {
        "casNumber": "42822-86-650373-36-9",
        "formula": "C10H20O2",
        "logP": "1,8",
        "molecularWeight": "172.2",
        "name": "Reaction mixture containing 1-Hydroxy-2-(1-methyl-1-hydroxyethyl)-5-methyl-cyclohexane (main component)",
        "vapourPressure": "0.0163 hPa"
    },
    "stability": {
        "APC": {
            "odour": "Moderate",
            "ph": "9"
        },
        "acidCleaner": {
            "odour": "Poor",
            "ph": "2"
        },
        "antiperspirant": {
            "odour": "Good",
            "ph": "3.5"
        },
        "bleach": {
            "odour": "Poor",
            "ph": "11"
        },
        "fabricConditioner": {
            "odour": "Good",
            "ph": "3"
        },
        "fabricDetergentLiquid": {
            "odour": "Moderate",
            "ph": "9"
        },
        "powderDetergent": {
            "odour": "Moderate",
            "ph": "10.5"
        },
        "shampoo": {
            "odour": "Good",
            "ph": "6"
        },
        "soap": {
            "odour": "Good",
            "ph": "10"
        }
    }
}