{
    "general": {
        "description": "Glycolierral offers a soft, green, milky nuance when used as a green top note modifier.It fits very well with green floral fruityconcepts and especially fig accords.",
        "family": "Floral",
        "givaudanNumber": "5631203",
        "name": "Glycolierral",
        "note": [
            "Floral",
            "Green",
            "Ivy leaves",
            "Woody"
        ]
    },
    "performance": {
        "bloomInSoap": "Poor",
        "burningEffectiveness": "Moderate",
        "substantivityDamp": "Moderate",
        "substantivityDry": "Poor",
        "tenacityOnBlotter": "1 day",
        "useLevel": "1% - 8%"
    },
    "physicoChemicalProperties": {
        "casNumber": "68901-32-694087-23-7",
        "formula": "C15H24O2",
        "logP": "3,8",
        "molecularWeight": "236",
        "name": "2-[6(5)-Methyl-8(7)-(1-methylethyl)bicyclo[2.2.2]oct-5-en-2-yl]-1,3-dioxolane",
        "vapourPressure": "0.0024 hPa (25°C)"
    },
    "stability": {
        "APC": {
            "odour": "Good",
            "ph": "9"
        },
        "acidCleaner": {
            "odour": "Good",
            "ph": "2"
        },
        "antiperspirant": {
            "odour": "Moderate",
            "ph": "3.5"
        },
        "bleach": {
            "odour": "Poor",
            "ph": "11"
        },
        "fabricConditioner": {
            "odour": "Good",
            "ph": "3"
        },
        "fabricDetergentLiquid": {
            "odour": "Moderate",
            "ph": "9"
        },
        "powderDetergent": {
            "odour": "Moderate",
            "ph": "10.5"
        },
        "shampoo": {
            "odour": "Good",
            "ph": "6"
        },
        "soap": {
            "odour": "Good",
            "ph": "10"
        }
    }
}
