{
    "general": {
        "description": "Herboxane is a spicy whilst distinctively herbal note particularly basil, reminiscent of sweet red pepper.Herboxane adds adistinctive freshness to a fragrance. It is also very stable in detergent powders with bleaching system.",
        "family": "Herbal",
        "givaudanNumber": "5698353",
        "name": "Herboxane",
        "note": [
            "Herbal",
            "Green",
            "Spicy",
            "Fresh"
        ]
    },
    "performance": {
        "bloomInSoap": "Poor",
        "burningEffectiveness": "Moderate",
        "substantivityDamp": "Poor",
        "substantivityDry": "Poor",
        "tenacityOnBlotter": "Several hours",
        "useLevel": "5 - 10%"
    },
    "physicoChemicalProperties": {
        "casNumber": "54546-26-8",
        "formula": "C11H22O2",
        "logP": "3",
        "molecularWeight": "186,1",
        "name": "2-Butyl-4,4,6-trimethyl-1,3-dioxane",
        "vapourPressure": "0.3999 hPa"
    },
    "stability": {
        "APC": {
            "odour": "Good",
            "ph": "9"
        },
        "acidCleaner": {
            "odour": "Moderate",
            "ph": "2"
        },
        "antiperspirant": {
            "odour": "Poor",
            "ph": "3.5"
        },
        "bleach": {
            "odour": "Moderate",
            "ph": "11"
        },
        "fabricConditioner": {
            "odour": "Good",
            "ph": "3"
        },
        "fabricDetergentLiquid": {
            "odour": "Good",
            "ph": "9"
        },
        "powderDetergent": {
            "odour": "Moderate",
            "ph": "10.5"
        },
        "shampoo": {
            "odour": "Good",
            "ph": "6"
        },
        "soap": {
            "odour": "Good",
            "ph": "10"
        }
    }
}