{
    "general": {
        "description": "Irone Alpha has a rich, floral and natural character and constitutes an important element in orris and violet compositions as wellas being useful when an exotic nuance is required.Irone Alpha is extremely diffusive and gives volume and tenacity tocompositions",
        "family": "Floral",
        "givaudanNumber": "6065003",
        "name": "Irone Alpha",
        "note": [
            "Floral",
            "Orris",
            "Woody"
        ]
    },
    "performance": {
        "bloomInSoap": "Moderate",
        "burningEffectiveness": "Good",
        "substantivityDamp": "Good",
        "substantivityDry": "Moderate",
        "tenacityOnBlotter": "1 week",
        "useLevel": "0.1% - 2%"
    },
    "physicoChemicalProperties": {
        "casNumber": "79-69-6",
        "formula": "C14H22O",
        "logP": "4,4",
        "molecularWeight": "206.3",
        "name": "4-(2,5,6,6-Tetramethyl-2-cyclohexen-1-yl)-3-buten-2-one (main component)",
        "vapourPressure": "0.0053 hPa"
    },
    "stability": {
        "APC": {
            "odour": "Moderate",
            "ph": "9"
        },
        "acidCleaner": {
            "odour": "Poor",
            "ph": "2"
        },
        "antiperspirant": {
            "odour": "Moderate",
            "ph": "3.5"
        },
        "bleach": {
            "odour": "Poor",
            "ph": "11"
        },
        "fabricConditioner": {
            "odour": "Moderate",
            "ph": "3"
        },
        "fabricDetergentLiquid": {
            "odour": "Moderate",
            "ph": "9"
        },
        "powderDetergent": {
            "odour": "Moderate",
            "ph": "10.5"
        },
        "shampoo": {
            "odour": "Good",
            "ph": "6"
        },
        "soap": {
            "odour": "Good",
            "ph": "10"
        }
    }
}