{
    "general": {
        "description": "Isoraldeine 70 has a fine, rich violet note, but its character is more orris-like and dry than Isoraldeine 95.It is often used in flowery,woody, spicy and oriental accords. Isoraldeine 70 brings volume and diffusion to compounds, as well as a skin care effect andgood overall substantivity.",
        "family": "Floral",
        "givaudanNumber": "6281303",
        "name": "Isoraldeine® 70",
        "note": [
            "Floral",
            "Orris",
            "Woody",
            "Fruity"
        ]
    },
    "performance": {
        "bloomInSoap": "Good",
        "burningEffectiveness": "Good",
        "substantivityDamp": "Good",
        "substantivityDry": "Good",
        "tenacityOnBlotter": "6 days",
        "useLevel": "1% - 15%"
    },
    "physicoChemicalProperties": {
        "casNumber": "1335-46-2",
        "formula": "C14H22O",
        "logP": "4,7",
        "molecularWeight": "206.3",
        "name": "3-Methyl-4-(2,6,6-trimethyl-2-cyclohexen-1-yl)-3-buten-2-one (main component)",
        "vapourPressure": "0.0067 hPa"
    },
    "stability": {
        "APC": {
            "odour": "Good",
            "ph": "9"
        },
        "acidCleaner": {
            "odour": "Moderate",
            "ph": "2"
        },
        "antiperspirant": {
            "odour": "Moderate",
            "ph": "3.5"
        },
        "bleach": {
            "odour": "Moderate",
            "ph": "11"
        },
        "fabricConditioner": {
            "odour": "Good",
            "ph": "3"
        },
        "fabricDetergentLiquid": {
            "odour": "Good",
            "ph": "9"
        },
        "powderDetergent": {
            "odour": "Moderate",
            "ph": "10.5"
        },
        "shampoo": {
            "odour": "Good",
            "ph": "6"
        },
        "soap": {
            "odour": "Good",
            "ph": "10"
        }
    }
}