{
    "general": {
        "description": "Kephalis is a very versatile and rich product, used as a long lasting heart and base notes.It blends well with floral notes (jasmine,rose, violet, lavender, etc.) as well as sophisticated ambery, woody-aldehydic, tobacco and masculine creations.",
        "family": "Woody",
        "givaudanNumber": "6378003",
        "name": "Kephalis",
        "note": [
            "Woody",
            "Ambery",
            "Tobacco",
            "Rich"
        ]
    },
    "performance": {
        "bloomInSoap": "Good",
        "burningEffectiveness": "Good",
        "substantivityDamp": "Moderate",
        "substantivityDry": "Moderate",
        "tenacityOnBlotter": "3 days",
        "useLevel": "1% - 8%"
    },
    "physicoChemicalProperties": {
        "casNumber": "36306-87-3",
        "formula": "C14H24O2",
        "logP": "4,3",
        "molecularWeight": "224.4",
        "name": "4-(1-Ethoxyvinyl)-3,3,5,5-tetramethyl-cyclohexan-1-one (main component)",
        "vapourPressure": "0.0053 hPa"
    },
    "stability": {
        "APC": {
            "odour": "Moderate",
            "ph": "9"
        },
        "acidCleaner": {
            "odour": "Moderate",
            "ph": "2"
        },
        "antiperspirant": {
            "odour": "Moderate",
            "ph": "3.5"
        },
        "bleach": {
            "odour": "Poor",
            "ph": "11"
        },
        "fabricConditioner": {
            "odour": "Good",
            "ph": "3"
        },
        "fabricDetergentLiquid": {
            "odour": "Good",
            "ph": "9"
        },
        "powderDetergent": {
            "odour": "Moderate",
            "ph": "10.5"
        },
        "shampoo": {
            "odour": "Good",
            "ph": "6"
        },
        "soap": {
            "odour": "Good",
            "ph": "10"
        }
    }
}