{
    "general": {
        "description": "Linalyl Benzoate has a beautiful floral, tuberose character.It blends extremely well in oriental and floral types where its use giveswarmth and softness.",
        "family": "Floral",
        "givaudanNumber": "2597001",
        "name": "Linalyl Benzoate",
        "note": [
            "Floral",
            "Tuberose"
        ]
    },
    "performance": {
        "bloomInSoap": "Moderate",
        "burningEffectiveness": "Good",
        "substantivityDamp": "Moderate",
        "substantivityDry": "Poor",
        "tenacityOnBlotter": "6 hours",
        "useLevel": "1% - 8%"
    },
    "physicoChemicalProperties": {
        "casNumber": "126-64-7",
        "formula": "C17H22O2",
        "logP": "6,1",
        "molecularWeight": "258.3",
        "name": "3,7-Dimethyl-1,6-octadien-3-yl benzoate",
        "vapourPressure": "0.0133 hPa"
    },
    "stability": {
        "APC": {
            "odour": "Moderate",
            "ph": "9"
        },
        "acidCleaner": {
            "odour": "Moderate",
            "ph": "2"
        },
        "antiperspirant": {
            "odour": "Moderate",
            "ph": "3.5"
        },
        "bleach": {
            "odour": "Poor",
            "ph": "11"
        },
        "fabricConditioner": {
            "odour": "Good",
            "ph": "3"
        },
        "fabricDetergentLiquid": {
            "odour": "Moderate",
            "ph": "9"
        },
        "powderDetergent": {
            "odour": "Poor",
            "ph": "10.5"
        },
        "shampoo": {
            "odour": "Good",
            "ph": "6"
        },
        "soap": {
            "odour": "Good",
            "ph": "10"
        }
    }
}