{
    "general": {
        "description": "Methyl Diantilis is an elegant, spicy, sweet ingredient with a similar olfactive profile to Isoeugenol, but with an additionalpowdery aspect reminiscent of carnation (Dianthus caryophyllus).Unlike Isoeugenol, it is much less susceptible to discolourationand is not restricted by IFRA.",
        "family": "Spicy",
        "givaudanNumber": "6906203",
        "name": "Methyl Diantilis®",
        "note": [
            "Spicy",
            "Carnation",
            "Vanilla",
            "Sweet"
        ]
    },
    "performance": {
        "bloomInSoap": "Good",
        "burningEffectiveness": "Good",
        "substantivityDamp": "Good",
        "substantivityDry": "Moderate",
        "tenacityOnBlotter": "3 weeks",
        "useLevel": "0.1% - 3%"
    },
    "physicoChemicalProperties": {
        "casNumber": "5595-79-9",
        "formula": "C10H14O3",
        "logP": "1,1",
        "molecularWeight": "182.2",
        "name": "2-Ethoxy-4-(methoxymethyl)phenol",
        "vapourPressure": "<0.0001 hPa"
    },
    "stability": {
        "APC": {
            "odour": "Good",
            "ph": "9"
        },
        "acidCleaner": {
            "odour": "Moderate",
            "ph": "2"
        },
        "antiperspirant": {
            "odour": "Moderate",
            "ph": "3.5"
        },
        "bleach": {
            "odour": "Poor",
            "ph": "11"
        },
        "fabricConditioner": {
            "odour": "Good",
            "ph": "3"
        },
        "fabricDetergentLiquid": {
            "odour": "Moderate",
            "ph": "9"
        },
        "powderDetergent": {
            "odour": "Moderate",
            "ph": "10.5"
        },
        "shampoo": {
            "odour": "Good",
            "ph": "6"
        },
        "soap": {
            "odour": "Good",
            "ph": "10"
        }
    }
}