{
    "general": {
        "description": "Oranger Crystals is very useful in neroli / orange blossom blends. It gives pretty effects in jasmine accords and colognes. Itsstability and substantivity allow it to be used to great advantage in soap and detergent compositions.",
        "family": "Floral",
        "givaudanNumber": "7758003",
        "name": "Oranger Crystals",
        "note": [
            "Floral",
            "Orange blossom",
            "Sweet",
            "Honey"
        ]
    },
    "performance": {
        "bloomInSoap": "Moderate",
        "burningEffectiveness": "Good",
        "substantivityDamp": "Good",
        "substantivityDry": "Good",
        "tenacityOnBlotter": "1 month +",
        "useLevel": "0.1% - 3%"
    },
    "physicoChemicalProperties": {
        "casNumber": "93-08-3",
        "formula": "C12H10O",
        "logP": "2,8",
        "molecularWeight": "170.2",
        "name": "2-Acetonaphthone",
        "vapourPressure": "0.0013 hPa"
    },
    "stability": {
        "APC": {
            "odour": "Good",
            "ph": "9"
        },
        "acidCleaner": {
            "odour": "Moderate",
            "ph": "2"
        },
        "antiperspirant": {
            "odour": "Good",
            "ph": "3.5"
        },
        "bleach": {
            "odour": "Poor",
            "ph": "11"
        },
        "fabricConditioner": {
            "odour": "Good",
            "ph": "3"
        },
        "fabricDetergentLiquid": {
            "odour": "Good",
            "ph": "9"
        },
        "powderDetergent": {
            "odour": "Good",
            "ph": "10.5"
        },
        "shampoo": {
            "odour": "Good",
            "ph": "6"
        },
        "soap": {
            "odour": "Good",
            "ph": "10"
        }
    }
}