{
    "general": {
        "description": "Safraleine has a very unique warm and vibrant character offering a new alternative to existing spicy ingredients.Safraleineexhibits warm, powerful, leathery and tobacco facets but its complexity also reveals characteristics of spices reminiscent ofnatural saffron, enriched by rose ketone-like floral aspects.",
        "family": "Spicy",
        "givaudanNumber": "0015893",
        "name": "Safraleine®",
        "note": [
            "Spicy",
            "Leathery",
            "Woody",
            "Warm"
        ]
    },
    "performance": {
        "bloomInSoap": "Good",
        "burningEffectiveness": "Good",
        "substantivityDamp": "Good",
        "substantivityDry": "Good",
        "tenacityOnBlotter": "1 week",
        "useLevel": "0.1% - 3%"
    },
    "physicoChemicalProperties": {
        "casNumber": "54440-17-4",
        "formula": "C12H14O",
        "logP": "2,9",
        "molecularWeight": "174,2",
        "name": "2,3,3-Trimethylindan-1-one",
        "vapourPressure": "0.0120 hPa"
    },
    "stability": {
        "APC": {
            "odour": "Good",
            "ph": "9"
        },
        "acidCleaner": {
            "odour": "Moderate",
            "ph": "2"
        },
        "antiperspirant": {
            "odour": "Poor",
            "ph": "3.5"
        },
        "bleach": {
            "odour": "Poor",
            "ph": "11"
        },
        "fabricConditioner": {
            "odour": "Good",
            "ph": "3"
        },
        "fabricDetergentLiquid": {
            "odour": "Good",
            "ph": "9"
        },
        "powderDetergent": {
            "odour": "Good",
            "ph": "10.5"
        },
        "shampoo": {
            "odour": "Good",
            "ph": "6"
        },
        "soap": {
            "odour": "Good",
            "ph": "10"
        }
    }
}