{
    "general": {
        "description": "Spirogalbanone Pure is a powerful, stable and highly substantive green galbanum note combined with fruityfacets.Spirogalbanone Pure combines nicely with Pharaone to build a linear green galbanum effect in the fragrance working fromtop and heart notes with Pharaone down to base notes thanks to the outstanding substantivity of Spirogalbanone.",
        "family": "Green",
        "givaudanNumber": "0010703",
        "name": "Spirogalbanone® ",
        "note": [
            "Green",
            "Galbanum",
            "Fruity",
            "Pineapple",
            "Powerful"
        ]
    },
    "performance": {
        "bloomInSoap": "Moderate",
        "burningEffectiveness": "Good",
        "substantivityDamp": "Good",
        "substantivityDry": "Good",
        "tenacityOnBlotter": "1 week",
        "useLevel": "Traces - 0.5 %"
    },
    "physicoChemicalProperties": {
        "casNumber": "224031-70-3",
        "formula": "C15H22O",
        "logP": "5,2",
        "molecularWeight": "218,3",
        "name": "1-Spiro(4.5)-7-decen-7-yl-4-penten-1-one & 1-spiro(4.5)-6-decen-7-yl-4-penten-1-one",
        "vapourPressure": "0.0044 hPa"
    },
    "stability": {
        "APC": {
            "odour": "Good",
            "ph": "9"
        },
        "acidCleaner": {
            "odour": "Good",
            "ph": "2"
        },
        "antiperspirant": {
            "odour": "Good",
            "ph": "3.5"
        },
        "bleach": {
            "odour": "Poor",
            "ph": "11"
        },
        "fabricConditioner": {
            "odour": "Good",
            "ph": "3"
        },
        "fabricDetergentLiquid": {
            "odour": "Good",
            "ph": "9"
        },
        "powderDetergent": {
            "odour": "Good",
            "ph": "10.5"
        },
        "shampoo": {
            "odour": "Good",
            "ph": "6"
        },
        "soap": {
            "odour": "Good",
            "ph": "10"
        }
    }
}