{
    "general": {
        "description": "Verdoracine has a green note with aspects of freshly peeled carrots and dry earthy qualities of galbanum.It can be used indetergents up to 3% to support the green galbanum heart of a fragrance. It can also be used in toiletries and fine fragrances as a10% dilution at 1% to support earthy, herbaceous notes.",
        "family": "Green",
        "givaudanNumber": "10023",
        "name": "Verdoracine",
        "note": [
            "Green",
            "Galbanum",
            "Carrot"
        ]
    },
    "performance": {
        "bloomInSoap": "Good",
        "burningEffectiveness": "Good",
        "substantivityDamp": "Good",
        "substantivityDry": "Moderate",
        "tenacityOnBlotter": "1 day",
        "useLevel": "Up to 3%"
    },
    "physicoChemicalProperties": {
        "casNumber": "14374-92-6",
        "formula": "C13H18",
        "logP": "5",
        "molecularWeight": "174",
        "name": "4-isopropyl-1-methyl-2-(prop-1-enyl)benzene",
        "vapourPressure": "0.1170 hPa (25°C)"
    },
    "stability": {
        "APC": {
            "odour": "Good",
            "ph": "9"
        },
        "acidCleaner": {
            "odour": "Moderate",
            "ph": "2"
        },
        "antiperspirant": {
            "odour": "Moderate",
            "ph": "3.5"
        },
        "bleach": {
            "odour": "Moderate",
            "ph": "11"
        },
        "fabricConditioner": {
            "odour": "Good",
            "ph": "3"
        },
        "fabricDetergentLiquid": {
            "odour": "Moderate",
            "ph": "9"
        },
        "powderDetergent": {
            "odour": "Moderate",
            "ph": "10.5"
        },
        "shampoo": {
            "odour": "Good",
            "ph": "6"
        },
        "soap": {
            "odour": "Moderate",
            "ph": "10"
        }
    }
}